SiC.data (written by ASE) 

2 	 atoms 
2  atom types
0.0              3.09681696  xlo xhi
0.0      2.6819221582304977  ylo yhi
0.0       2.528540459598994  zlo zhi
    -1.5484084799999995     -1.5484084799999995     0.89397405274349939  xy xz yz


Atoms 

     1   1      1.5484084800000004     0.89397405274349928      0.6321351148997485
     2   2                       0                       0                       0
